<?xml version="1.0" encoding="UTF-8"?>

<!-- generated on 2025-09-05 14:59:45 by Eclipse SUMO sumo Version v1_19_0+2078-88426099c44
<configuration xmlns:xsi="http://www.w3.org/2001/XMLSchema-instance" xsi:noNamespaceSchemaLocation="http://sumo.dlr.de/xsd/sumoConfiguration.xsd">

    <input>
        <net-file value="configs/randgrid.net.xml"/>
        <route-files value="configs/5-15.rou.xml"/>
        <additional-files value="configs/parkingareas.add.xml"/>
    </input>

    <output>
        <tripinfo-output value="configs/../sumo_output/tripinfo.xml"/>
        <tripinfo-output.write-undeparted value="True"/>
    </output>

    <time>
        <begin value="0"/>
        <end value="10000"/>
    </time>

    <report>
        <verbose value="True"/>
        <message-log value="configs/message.xml"/>
        <error-log value="configs/error.xml"/>
        <duration-log.statistics value="True"/>
    </report>

    <taxi_device>
        <device.taxi.dispatch-algorithm value="traci"/>
        <device.taxi.dispatch-period value="1"/>
        <device.taxi.idle-algorithm value="stop"/>
    </taxi_device>

    <random_number>
        <seed value="42"/>
    </random_number>

    <gui_only>
        <gui-settings-file value="configs/sumoview.xml"/>
        <start value="true"/>
    </gui_only>

</configuration>
-->

<tripinfos xmlns:xsi="http://www.w3.org/2001/XMLSchema-instance" xsi:noNamespaceSchemaLocation="http://sumo.dlr.de/xsd/tripinfo_file.xsd">
